<?xml version="1.0" encoding="UTF-8"?>

<!-- generated on 2021-05-26 08:22:11 by Eclipse SUMO sumo Version 1.9.2
<configuration xmlns:xsi="http://www.w3.org/2001/XMLSchema-instance" xsi:noNamespaceSchemaLocation="http://sumo.dlr.de/xsd/sumoConfiguration.xsd">

    <input>
        <net-file value="osm.net.xml"/>
        <route-files value="osm_pt.rou.xml,osm.passenger.trips.xml,osm.truck.trips.xml,osm.bus.trips.xml,osm.motorcycle.trips.xml,osm.bicycle.trips.xml,osm.pedestrian.rou.xml"/>
        <additional-files value="osm.poly.xml,osm_stops.add.xml"/>
    </input>

    <output>
        <emission-output value="./out/emission.xml"/>
        <fcd-output value="./out/fcd.xml"/>
        <full-output value="./out/full.xml"/>
        <amitran-output value="./out/amitran.xml"/>
        <statistic-output value="./out/statistic.xml"/>
    </output>

    <processing>
        <threads value="3"/>
        <ignore-route-errors value="true"/>
    </processing>

    <routing>
        <device.rerouting.adaptation-steps value="18"/>
        <device.rerouting.adaptation-interval value="10"/>
    </routing>

    <report>
        <verbose value="true"/>
        <duration-log.statistics value="true"/>
        <no-step-log value="true"/>
    </report>

    <gui_only>
        <gui-settings-file value="osm.view.xml"/>
    </gui_only>

</configuration>
-->

<emission-export xmlns:xsi="http://www.w3.org/2001/XMLSchema-instance" xsi:noNamespaceSchemaLocation="http://sumo.dlr.de/xsd/emission_file.xsd">
    <timestep time="0.00">
        <vehicle id="bike0" eclass="Zero/default" CO2="0.00" CO="0.00" HC="0.00" NOx="0.00" PMx="0.00" fuel="0.00" electricity="0.00" noise="0.00" route="!bike0!var#1" type="bike_bicycle" waiting="0.00" lane="169923248#1_1" pos="1.70" speed="0.00" angle="53.24" x="1734.27" y="843.87"/>
        <vehicle id="moto0" eclass="HBEFA3/LDV_G_EU6" CO2="1228.61" CO="179.19" HC="0.64" NOx="0.31" PMx="0.17" fuel="0.53" electricity="0.00" noise="55.94" route="!moto0!var#1" type="moto_motorcycle" waiting="0.00" lane="-205860388#3_1" pos="2.30" speed="0.00" angle="180.86" x="2063.37" y="530.94"/>
        <vehicle id="truck0" eclass="HBEFA3/HDV" CO2="7380.56" CO="15.20" HC="0.00" NOx="84.89" PMx="2.21" fuel="3.13" electricity="0.00" noise="67.11" route="!truck0!var#1" type="truck_truck" waiting="0.00" lane="169923246#1_1" pos="7.20" speed="0.00" angle="220.80" x="1605.10" y="722.14"/>
        <vehicle id="veh0" eclass="HBEFA3/PC_G_EU4" CO2="2416.04" CO="0.00" HC="0.01" NOx="0.72" PMx="0.01" fuel="1.04" electricity="0.00" noise="65.15" route="!veh0!var#1" type="veh_passenger" waiting="0.00" lane="169923249#0_1" pos="5.10" speed="14.72" angle="330.42" x="2484.29" y="1373.04"/>
    </timestep>
    <timestep time="1.00">
        <vehicle id="bike0" eclass="Zero/default" CO2="0.00" CO="0.00" HC="0.00" NOx="0.00" PMx="0.00" fuel="0.00" electricity="0.00" noise="0.00" route="!bike0!var#1" type="bike_bicycle" waiting="0.00" lane="169923248#1_1" pos="2.53" speed="0.83" angle="53.24" x="1734.94" y="844.37"/>
        <vehicle id="moto0" eclass="HBEFA3/LDV_G_EU6" CO2="9053.27" CO="408.41" HC="1.78" NOx="1.87" PMx="0.60" fuel="3.89" electricity="0.00" noise="81.62" route="!moto0!var#1" type="moto_motorcycle" waiting="0.00" lane="-205860388#3_1" pos="7.66" speed="5.36" angle="204.86" x="2061.77" y="525.87"/>
        <vehicle id="truck0" eclass="HBEFA3/HDV" CO2="10332.12" CO="18.39" HC="0.00" NOx="106.66" PMx="2.54" fuel="4.38" electricity="0.00" noise="73.76" route="!truck0!var#1" type="truck_truck" waiting="0.00" lane="169923246#1_1" pos="8.31" speed="1.11" angle="221.62" x="1604.32" y="721.34"/>
        <vehicle id="veh0" eclass="HBEFA3/PC_G_EU4" CO2="0.00" CO="0.00" HC="0.00" NOx="0.00" PMx="0.00" fuel="0.00" electricity="0.00" noise="64.48" route="!veh0!var#1" type="veh_passenger" waiting="0.00" lane="169923249#0_1" pos="19.58" speed="14.48" angle="295.55" x="2474.41" y="1381.61"/>
    </timestep>
    <timestep time="2.00">
        <vehicle id="bike0" eclass="Zero/default" CO2="0.00" CO="0.00" HC="0.00" NOx="0.00" PMx="0.00" fuel="0.00" electricity="0.00" noise="0.00" route="!bike0!var#1" type="bike_bicycle" waiting="0.00" lane="169923248#1_1" pos="4.32" speed="1.80" angle="53.24" x="1736.39" y="845.45"/>
        <vehicle id="moto0" eclass="HBEFA3/LDV_G_EU6" CO2="18365.78" CO="742.32" HC="3.36" NOx="3.71" PMx="1.19" fuel="7.90" electricity="0.00" noise="85.51" route="!moto0!var#1" type="moto_motorcycle" waiting="0.00" lane="-205860388#3_1" pos="18.70" speed="11.04" angle="204.86" x="2057.07" y="515.73"/>
        <vehicle id="truck0" eclass="HBEFA3/HDV" CO2="14376.39" CO="22.79" HC="0.00" NOx="136.79" PMx="2.99" fuel="6.09" electricity="0.00" noise="75.13" route="!truck0!var#1" type="truck_truck" waiting="0.00" lane="169923246#1_1" pos="10.67" speed="2.37" angle="223.38" x="1602.64" y="719.63"/>
        <vehicle id="veh0" eclass="HBEFA3/PC_G_EU4" CO2="0.00" CO="0.00" HC="0.00" NOx="0.00" PMx="0.00" fuel="0.00" electricity="0.00" noise="62.46" route="!veh0!var#1" type="veh_passenger" waiting="0.00" lane="169923249#1_1" pos="5.80" speed="13.49" angle="268.11" x="2461.21" y="1382.78"/>
    </timestep>
    <timestep time="3.00">
        <vehicle id="bike0" eclass="Zero/default" CO2="0.00" CO="0.00" HC="0.00" NOx="0.00" PMx="0.00" fuel="0.00" electricity="0.00" noise="0.00" route="!bike0!var#1" type="bike_bicycle" waiting="0.00" lane="169923248#1_1" pos="6.78" speed="2.46" angle="53.24" x="1738.37" y="846.93"/>
        <vehicle id="moto0" eclass="HBEFA3/LDV_G_EU6" CO2="6302.65" CO="184.67" HC="0.88" NOx="1.37" PMx="0.31" fuel="2.71" electricity="0.00" noise="67.38" route="!moto0!var#1" type="moto_motorcycle" waiting="0.00" lane="-205860388#3_1" pos="30.99" speed="12.30" angle="204.86" x="2051.84" y="504.43"/>
        <vehicle id="truck0" eclass="HBEFA3/HDV" CO2="17229.29" CO="25.87" HC="0.00" NOx="157.72" PMx="3.31" fuel="7.30" electricity="0.00" noise="75.19" route="!truck0!var#1" type="truck_truck" waiting="0.00" lane="169923246#1_1" pos="14.21" speed="3.53" angle="224.35" x="1600.15" y="717.07"/>
        <vehicle id="veh0" eclass="HBEFA3/PC_G_EU4" CO2="7082.90" CO="86.99" HC="0.57" NOx="2.92" PMx="0.13" fuel="3.04" electricity="0.00" noise="68.61" route="!veh0!var#1" type="veh_passenger" waiting="0.00" lane="169923249#1_1" pos="20.51" speed="14.70" angle="249.99" x="2446.95" y="1380.58"/>
        <vehicle id="veh1" eclass="HBEFA3/PC_G_EU4" CO2="2624.72" CO="164.78" HC="0.81" NOx="1.20" PMx="0.07" fuel="1.13" electricity="0.00" noise="55.94" route="!veh1!var#1" type="veh_passenger" waiting="0.00" lane="-225052910#1_1" pos="5.10" speed="0.00" angle="311.06" x="1925.71" y="463.51"/>
    </timestep>
    <timestep time="4.00">
        <vehicle id="bike0" eclass="Zero/default" CO2="0.00" CO="0.00" HC="0.00" NOx="0.00" PMx="0.00" fuel="0.00" electricity="0.00" noise="0.00" route="!bike0!var#1" type="bike_bicycle" waiting="0.00" lane="169923248#1_1" pos="10.30" speed="3.52" angle="53.24" x="1741.21" y="849.05"/>
        <vehicle id="moto0" eclass="HBEFA3/LDV_G_EU6" CO2="0.00" CO="0.00" HC="0.00" NOx="0.00" PMx="0.00" fuel="0.00" electricity="0.00" noise="60.41" route="!moto0!var#1" type="moto_motorcycle" waiting="0.00" lane="-205860388#3_1" pos="42.23" speed="11.24" angle="204.86" x="2047.05" y="494.11"/>
        <vehicle id="truck0" eclass="HBEFA3/HDV" CO2="20170.73" CO="29.05" HC="0.00" NOx="179.37" PMx="3.63" fuel="8.55" electricity="0.00" noise="75.60" route="!truck0!var#1" type="truck_truck" waiting="0.00" lane="169923246#1_1" pos="18.89" speed="4.68" angle="224.35" x="1596.84" y="713.69"/>
        <vehicle id="veh0" eclass="HBEFA3/PC_G_EU4" CO2="0.00" CO="0.00" HC="0.00" NOx="0.00" PMx="0.00" fuel="0.00" electricity="0.00" noise="64.98" route="!veh0!var#1" type="veh_passenger" waiting="0.00" lane="169923249#1_1" pos="35.16" speed="14.65" angle="249.99" x="2433.27" y="1375.60"/>
        <vehicle id="veh1" eclass="HBEFA3/PC_G_EU4" CO2="2955.05" CO="148.04" HC="0.74" NOx="1.32" PMx="0.07" fuel="1.27" electricity="0.00" noise="62.52" route="!veh1!var#1" type="veh_passenger" waiting="0.00" lane="-225052910#1_1" pos="6.48" speed="1.38" angle="311.06" x="1924.68" y="464.41"/>
    </timestep>
    <timestep time="5.00">
        <vehicle id="bike0" eclass="Zero/default" CO2="0.00" CO="0.00" HC="0.00" NOx="0.00" PMx="0.00" fuel="0.00" electricity="0.00" noise="0.00" route="!bike0!var#1" type="bike_bicycle" waiting="0.00" lane="169923248#1_1" pos="14.48" speed="4.18" angle="53.24" x="1744.58" y="851.57"/>
        <vehicle id="bike1" eclass="Zero/default" CO2="0.00" CO="0.00" HC="0.00" NOx="0.00" PMx="0.00" fuel="0.00" electricity="0.00" noise="0.00" route="!bike1!var#1" type="bike_bicycle" waiting="0.00" lane="-225052896#3_1" pos="1.70" speed="5.56" angle="141.15" x="1855.47" y="1287.31"/>
        <vehicle id="bus0" eclass="HBEFA3/Bus" CO2="5286.11" CO="20.17" HC="4.85" NOx="60.75" PMx="2.01" fuel="2.25" electricity="0.00" noise="67.11" route="!bus0!var#1" type="bus_bus" waiting="0.00" lane="169923246#1_1" pos="12.10" speed="0.00" angle="222.25" x="1601.63" y="718.60"/>
        <vehicle id="moto0" eclass="HBEFA3/LDV_G_EU6" CO2="0.00" CO="0.00" HC="0.00" NOx="0.00" PMx="0.00" fuel="0.00" electricity="0.00" noise="39.77" route="!moto0!var#1" type="moto_motorcycle" waiting="0.00" lane="-205860388#3_1" pos="44.67" speed="2.44" angle="204.86" x="2046.01" y="491.87"/>
        <vehicle id="truck0" eclass="HBEFA3/HDV" CO2="23619.80" CO="32.79" HC="0.00" NOx="204.95" PMx="4.02" fuel="10.01" electricity="0.00" noise="76.32" route="!truck0!var#1" type="truck_truck" waiting="0.00" lane="169923246#1_1" pos="24.73" speed="5.84" angle="224.35" x="1592.71" y="709.46"/>
        <vehicle id="veh0" eclass="HBEFA3/PC_G_EU4" CO2="0.00" CO="0.00" HC="0.00" NOx="0.00" PMx="0.00" fuel="0.00" electricity="0.00" noise="65.05" route="!veh0!var#1" type="veh_passenger" waiting="0.00" lane="169923249#1_1" pos="49.79" speed="14.64" angle="249.99" x="2419.62" y="1370.63"/>
        <vehicle id="veh1" eclass="HBEFA3/PC_G_EU4" CO2="3267.70" CO="133.26" HC="0.68" NOx="1.43" PMx="0.07" fuel="1.40" electricity="0.00" noise="62.85" route="!veh1!var#1" type="veh_passenger" waiting="0.00" lane="-225052910#1_1" pos="9.18" speed="2.70" angle="311.06" x="1922.64" y="466.19"/>
        <vehicle id="veh2" eclass="HBEFA3/PC_G_EU4" CO2="2460.71" CO="0.00" HC="0.01" NOx="0.73" PMx="0.01" fuel="1.06" electricity="0.00" noise="65.44" route="!veh2!var#1" type="veh_passenger" waiting="0.00" lane="205860388#0_1" pos="5.10" speed="15.15" angle="25.26" x="1941.43" y="242.68"/>
    </timestep>
    <timestep time="6.00">
        <vehicle id="bike0" eclass="Zero/default" CO2="0.00" CO="0.00" HC="0.00" NOx="0.00" PMx="0.00" fuel="0.00" electricity="0.00" noise="0.00" route="!bike0!var#1" type="bike_bicycle" waiting="0.00" lane="169923248#1_1" pos="19.59" speed="5.11" angle="60.91" x="1748.97" y="854.25"/>
        <vehicle id="bike1" eclass="Zero/default" CO2="0.00" CO="0.00" HC="0.00" NOx="0.00" PMx="0.00" fuel="0.00" electricity="0.00" noise="0.00" route="!bike1!var#1" type="bike_bicycle" waiting="0.00" lane="-225052896#3_1" pos="6.77" speed="5.07" angle="141.15" x="1858.65" y="1283.36"/>
        <vehicle id="bus0" eclass="HBEFA3/Bus" CO2="6355.26" CO="21.10" HC="4.99" NOx="67.76" PMx="2.11" fuel="2.71" electricity="0.00" noise="70.87" route="!bus0!var#1" type="bus_bus" waiting="0.00" lane="169923246#1_1" pos="12.73" speed="0.63" angle="222.53" x="1601.19" y="718.14"/>
        <vehicle id="moto0" eclass="HBEFA3/LDV_G_EU6" CO2="2196.36" CO="141.89" HC="0.55" NOx="0.52" PMx="0.15" fuel="0.94" electricity="0.00" noise="60.98" route="!moto0!var#1" type="moto_motorcycle" waiting="0.00" lane=":1674805799_7_0" pos="0.65" speed="3.28" angle="128.62" x="2047.56" y="489.65"/>
        <vehicle id="truck0" eclass="HBEFA3/HDV" CO2="22709.76" CO="31.71" HC="0.00" NOx="196.79" PMx="3.89" fuel="9.63" electricity="0.00" noise="75.42" route="!truck0!var#1" type="truck_truck" waiting="0.00" lane="169923246#1_1" pos="31.48" speed="6.75" angle="224.35" x="1587.93" y="704.58"/>
        <vehicle id="veh0" eclass="HBEFA3/PC_G_EU4" CO2="2659.59" CO="0.00" HC="0.04" NOx="0.84" PMx="0.02" fuel="1.14" electricity="0.00" noise="65.27" route="!veh0!var#1" type="veh_passenger" waiting="0.00" lane="169923249#1_1" pos="64.49" speed="14.70" angle="251.51" x="2405.79" y="1365.94"/>
        <vehicle id="veh1" eclass="HBEFA3/PC_G_EU4" CO2="3775.14" CO="122.40" HC="0.65" NOx="1.63" PMx="0.08" fuel="1.62" electricity="0.00" noise="63.95" route="!veh1!var#1" type="veh_passenger" waiting="0.00" lane="-225052910#1_1" pos="13.32" speed="4.14" angle="311.06" x="1919.51" y="468.91"/>
        <vehicle id="veh2" eclass="HBEFA3/PC_G_EU4" CO2="0.00" CO="0.00" HC="0.00" NOx="0.00" PMx="0.00" fuel="0.00" electricity="0.00" noise="64.12" route="!veh2!var#1" type="veh_passenger" waiting="0.00" lane="205860388#0_1" pos="19.75" speed="14.65" angle="25.26" x="1947.67" y="255.93"/>
    </timestep>
    <timestep time="7.00">
        <vehicle id="bike0" eclass="Zero/default" CO2="0.00" CO="0.00" HC="0.00" NOx="0.00" PMx="0.00" fuel="0.00" electricity="0.00" noise="0.00" route="!bike0!var#1" type="bike_bicycle" waiting="0.00" lane="169923248#1_1" pos="25.10" speed="5.50" angle="60.91" x="1753.81" y="856.94"/>
        <vehicle id="bike1" eclass="Zero/default" CO2="0.00" CO="0.00" HC="0.00" NOx="0.00" PMx="0.00" fuel="0.00" electricity="0.00" noise="0.00" route="!bike1!var#1" type="bike_bicycle" waiting="0.00" lane="-225052896#3_1" pos="11.77" speed="5.00" angle="141.15" x="1861.78" y="1279.46"/>
        <vehicle id="bus0" eclass="HBEFA3/Bus" CO2="7452.05" CO="22.06" HC="5.13" NOx="74.96" PMx="2.23" fuel="3.18" electricity="0.00" noise="71.18" route="!bus0!var#1" type="bus_bus" waiting="0.00" lane="169923246#1_1" pos="13.99" speed="1.26" angle="223.08" x="1600.30" y="717.23"/>
        <vehicle id="moto0" eclass="HBEFA3/LDV_G_EU6" CO2="0.00" CO="0.00" HC="0.00" NOx="0.00" PMx="0.00" fuel="0.00" electricity="0.00" noise="53.22" route="!moto0!var#1" type="moto_motorcycle" waiting="0.00" lane="205860388#3_1" pos="0.89" speed="2.41" angle="45.29" x="2049.24" y="491.20"/>
        <vehicle id="moto1" eclass="HBEFA3/LDV_G_EU6" CO2="1228.61" CO="179.19" HC="0.64" NOx="0.31" PMx="0.17" fuel="0.53" electricity="0.00" noise="55.94" route="!moto1!var#1" type="moto_motorcycle" waiting="0.00" lane="169923329#1_1" pos="2.30" speed="0.00" angle="322.41" x="2151.13" y="1040.20"/>
        <vehicle id="truck0" eclass="HBEFA3/HDV" CO2="24149.40" CO="33.25" HC="0.00" NOx="207.02" PMx="4.04" fuel="10.24" electricity="0.00" noise="75.72" route="!truck0!var#1" type="truck_truck" waiting="0.00" lane="169923246#1_1" pos="39.10" speed="7.62" angle="230.18" x="1582.07" y="699.62"/>
        <vehicle id="truck2" eclass="HBEFA3/HDV" CO2="7380.56" CO="15.20" HC="0.00" NOx="84.89" PMx="2.21" fuel="3.13" electricity="0.00" noise="67.11" route="!truck2!var#1" type="truck_truck" waiting="0.00" lane="-169923323_1" pos="7.20" speed="0.00" angle="43.53" x="1710.46" y="793.07"/>
        <vehicle id="veh0" eclass="HBEFA3/PC_G_EU4" CO2="0.00" CO="0.00" HC="0.00" NOx="0.00" PMx="0.00" fuel="0.00" electricity="0.00" noise="64.19" route="!veh0!var#1" type="veh_passenger" waiting="0.00" lane="169923249#1_1" pos="78.85" speed="14.36" angle="237.48" x="2393.62" y="1358.58"/>
        <vehicle id="veh1" eclass="HBEFA3/PC_G_EU4" CO2="6545.04" CO="145.96" HC="0.82" NOx="2.87" PMx="0.14" fuel="2.81" electricity="0.00" noise="69.87" route="!veh1!var#1" type="veh_passenger" waiting="0.00" lane="-225052910#1_1" pos="20.01" speed="6.69" angle="311.06" x="1914.47" y="473.31"/>
        <vehicle id="veh2" eclass="HBEFA3/PC_G_EU4" CO2="0.00" CO="0.00" HC="0.00" NOx="0.00" PMx="0.00" fuel="0.00" electricity="0.00" noise="63.79" route="!veh2!var#1" type="veh_passenger" waiting="0.00" lane="205860388#0_1" pos="33.91" speed="14.16" angle="25.26" x="1953.72" y="268.73"/>
        <vehicle id="veh3" eclass="HBEFA3/PC_G_EU4" CO2="2624.72" CO="164.78" HC="0.81" NOx="1.20" PMx="0.07" fuel="1.13" electricity="0.00" noise="55.94" route="!veh3!var#1" type="veh_passenger" waiting="0.00" lane="380698877#2_1" pos="4.41" speed="0.00" angle="292.80" x="961.17" y="580.01"/>
    </timestep>
    <timestep time="8.00">
        <vehicle id="bike0" eclass="Zero/default" CO2="0.00" CO="0.00" HC="0.00" NOx="0.00" PMx="0.00" fuel="0.00" electricity="0.00" noise="0.00" route="!bike0!var#1" type="bike_bicycle" waiting="0.00" lane="169923248#1_1" pos="30.42" speed="5.32" angle="60.91" x="1758.49" y="859.55"/>
        <vehicle id="bike1" eclass="Zero/default" CO2="0.00" CO="0.00" HC="0.00" NOx="0.00" PMx="0.00" fuel="0.00" electricity="0.00" noise="0.00" route="!bike1!var#1" type="bike_bicycle" waiting="0.00" lane="-225052896#3_1" pos="17.07" speed="5.30" angle="141.15" x="1865.11" y="1275.34"/>
        <vehicle id="bus0" eclass="HBEFA3/Bus" CO2="10886.70" CO="25.52" HC="5.57" NOx="98.44" PMx="2.61" fuel="4.64" electricity="0.00" noise="73.87" route="!bus0!var#1" type="bus_bus" waiting="0.00" lane="169923246#1_1" pos="16.29" speed="2.30" angle="224.09" x="1598.68" y="715.57"/>
        <vehicle id="moto0" eclass="HBEFA3/LDV_G_EU6" CO2="5941.12" CO="266.13" HC="1.14" NOx="1.27" PMx="0.38" fuel="2.55" electricity="0.00" noise="71.51" route="!moto0!var#1" type="moto_motorcycle" waiting="0.00" lane="205860388#3_1" pos="6.34" speed="5.45" angle="24.85" x="2051.50" y="496.09"/>
        <vehicle id="moto1" eclass="HBEFA3/LDV_G_EU6" CO2="6333.15" CO="306.73" HC="1.30" NOx="1.33" PMx="0.43" fuel="2.72" electricity="0.00" noise="76.54" route="!moto1!var#1" type="moto_motorcycle" waiting="0.00" lane="169923329#1_1" pos="6.60" speed="4.30" angle="322.41" x="2148.51" y="1043.61"/>
        <vehicle id="truck0" eclass="HBEFA3/HDV" CO2="29851.35" CO="39.50" HC="0.00" NOx="250.32" PMx="4.70" fuel="12.66" electricity="0.00" noise="77.35" route="!truck0!var#1" type="truck_truck" waiting="0.00" lane="169923246#1_1" pos="47.79" speed="8.69" angle="234.43" x="1574.92" y="694.51"/>
        <vehicle id="truck2" eclass="HBEFA3/HDV" CO2="10832.71" CO="18.94" HC="0.00" NOx="110.45" PMx="2.59" fuel="4.59" electricity="0.00" noise="74.36" route="!truck2!var#1" type="truck_truck" waiting="0.00" lane="-169923323_1" pos="8.41" speed="1.21" angle="43.53" x="1711.29" y="793.95"/>
        <vehicle id="veh0" eclass="HBEFA3/PC_G_EU4" CO2="0.00" CO="0.00" HC="0.00" NOx="0.00" PMx="0.00" fuel="0.00" electricity="0.00" noise="63.03" route="!veh0!var#1" type="veh_passenger" waiting="0.00" lane="169923249#1_1" pos="92.51" speed="13.66" angle="227.23" x="2383.48" y="1349.61"/>
        <vehicle id="veh1" eclass="HBEFA3/PC_G_EU4" CO2="7858.51" CO="146.14" HC="0.85" NOx="3.43" PMx="0.16" fuel="3.38" electricity="0.00" noise="70.47" route="!veh1!var#1" type="veh_passenger" waiting="0.00" lane="-225052910#1_1" pos="29.13" speed="9.11" angle="311.06" x="1907.60" y="479.29"/>
        <vehicle id="veh2" eclass="HBEFA3/PC_G_EU4" CO2="5288.31" CO="49.01" HC="0.35" NOx="2.07" PMx="0.09" fuel="2.27" electricity="0.00" noise="67.17" route="!veh2!var#1" type="veh_passenger" waiting="0.00" lane="205860388#0_1" pos="48.81" speed="14.90" angle="25.26" x="1960.07" y="282.21"/>
        <vehicle id="veh3" eclass="HBEFA3/PC_G_EU4" CO2="3969.80" CO="151.01" HC="0.78" NOx="1.77" PMx="0.09" fuel="1.71" electricity="0.00" noise="67.87" route="!veh3!var#1" type="veh_passenger" waiting="0.00" lane=":3661051735_4_0" pos="2.49" speed="2.49" angle="293.76" x="958.95" y="581.04"/>
    </timestep>
    <timestep time="9.00">
        <vehicle id="bike0" eclass="Zero/default" CO2="0.00" CO="0.00" HC="0.00" NOx="0.00" PMx="0.00" fuel="0.00" electricity="0.00" noise="0.00" route="!bike0!var#1" type="bike_bicycle" waiting="0.00" lane="169923248#1_1" pos="35.48" speed="5.07" angle="65.50" x="1763.04" y="861.84"/>
        <vehicle id="bike1" eclass="Zero/default" CO2="0.00" CO="0.00" HC="0.00" NOx="0.00" PMx="0.00" fuel="0.00" electricity="0.00" noise="0.00" route="!bike1!var#1" type="bike_bicycle" waiting="0.00" lane="-225052896#3_1" pos="22.15" speed="5.08" angle="141.15" x="1868.29" y="1271.38"/>
        <vehicle id="bike2" eclass="Zero/default" CO2="0.00" CO="0.00" HC="0.00" NOx="0.00" PMx="0.00" fuel="0.00" electricity="0.00" noise="0.00" route="!bike2!var#1" type="bike_bicycle" waiting="0.00" lane="205860388#0_1" pos="1.70" speed="5.56" angle="25.26" x="1939.98" y="239.61"/>
        <vehicle id="bus0" eclass="HBEFA3/Bus" CO2="12724.66" CO="27.18" HC="5.81" NOx="110.62" PMx="2.80" fuel="5.43" electricity="0.00" noise="73.85" route="!bus0!var#1" type="bus_bus" waiting="0.00" lane="169923246#1_1" pos="19.54" speed="3.25" angle="224.35" x="1596.38" y="713.22"/>
        <vehicle id="moto0" eclass="HBEFA3/LDV_G_EU6" CO2="18897.54" CO="764.29" HC="3.46" NOx="3.82" PMx="1.22" fuel="8.12" electricity="0.00" noise="85.97" route="!moto0!var#1" type="moto_motorcycle" waiting="0.00" lane="205860388#3_1" pos="17.57" speed="11.22" angle="24.85" x="2056.17" y="506.15"/>
        <vehicle id="moto1" eclass="HBEFA3/LDV_G_EU6" CO2="17537.70" CO="715.18" HC="3.23" NOx="3.55" PMx="1.14" fuel="7.54" electricity="0.00" noise="86.00" route="!moto1!var#1" type="moto_motorcycle" waiting="0.00" lane="169923329#1_1" pos="16.78" speed="10.18" angle="322.41" x="2142.29" y="1051.69"/>
        <vehicle id="truck0" eclass="HBEFA3/HDV" CO2="32681.21" CO="42.56" HC="0.00" NOx="271.18" PMx="5.01" fuel="13.86" electricity="0.00" noise="77.98" route="!truck0!var#1" type="truck_truck" waiting="0.00" lane="169923246#1_1" pos="57.56" speed="9.76" angle="234.43" x="1566.89" y="688.77"/>
        <vehicle id="truck2" eclass="HBEFA3/HDV" CO2="11093.38" CO="19.18" HC="0.00" NOx="111.64" PMx="2.61" fuel="4.70" electricity="0.00" noise="72.00" route="!truck2!var#1" type="truck_truck" waiting="0.00" lane="-169923323_1" pos="10.34" speed="1.94" angle="43.53" x="1712.62" y="795.35"/>
        <vehicle id="veh0" eclass="HBEFA3/PC_G_EU4" CO2="2794.65" CO="4.01" HC="0.08" NOx="0.92" PMx="0.02" fuel="1.20" electricity="0.00" noise="64.81" route="!veh0!var#1" type="veh_passenger" waiting="0.00" lane="169923249#1_1" pos="106.29" speed="13.79" angle="213.33" x="2374.86" y="1339.10"/>
        <vehicle id="veh1" eclass="HBEFA3/PC_G_EU4" CO2="6887.44" CO="110.37" HC="0.67" NOx="2.93" PMx="0.14" fuel="2.96" electricity="0.00" noise="68.24" route="!veh1!var#1" type="veh_passenger" waiting="0.00" lane="-225052910#1_1" pos="39.93" speed="10.80" angle="311.06" x="1899.46" y="486.39"/>
        <vehicle id="veh2" eclass="HBEFA3/PC_G_EU4" CO2="0.00" CO="0.00" HC="0.00" NOx="0.00" PMx="0.00" fuel="0.00" electricity="0.00" noise="65.02" route="!veh2!var#1" type="veh_passenger" waiting="0.00" lane="205860388#0_1" pos="63.62" speed="14.81" angle="23.97" x="1966.29" y="295.65"/>
        <vehicle id="veh3" eclass="HBEFA3/PC_G_EU4" CO2="4889.66" CO="137.58" HC="0.74" NOx="2.14" PMx="0.10" fuel="2.10" electricity="0.00" noise="67.53" route="!veh3!var#1" type="veh_passenger" waiting="0.00" lane="380698877#3_1" pos="0.71" speed="4.70" angle="295.25" x="954.78" y="583.01"/>
        <vehicle id="veh4" eclass="HBEFA3/PC_G_EU4" CO2="2624.72" CO="164.78" HC="0.81" NOx="1.20" PMx="0.07" fuel="1.13" electricity="0.00" noise="55.94" route="!veh4!var#1" type="veh_passenger" waiting="0.00" lane="-169923328#0_1" pos="5.10" speed="0.00" angle="347.66" x="1341.60" y="1100.70"/>
    </timestep>
    <timestep time="10.00">
        <vehicle id="bike0" eclass="Zero/default" CO2="0.00" CO="0.00" HC="0.00" NOx="0.00" PMx="0.00" fuel="0.00" electricity="0.00" noise="0.00" route="!bike0!var#1" type="bike_bicycle" waiting="0.00" lane="169923248#1_1" pos="41.03" speed="5.55" angle="65.50" x="1768.12" y="864.15"/>
        <vehicle id="bike1" eclass="Zero/default" CO2="0.00" CO="0.00" HC="0.00" NOx="0.00" PMx="0.00" fuel="0.00" electricity="0.00" noise="0.00" route="!bike1!var#1" type="bike_bicycle" waiting="0.00" lane="-225052896#3_1" pos="27.30" speed="5.15" angle="141.15" x="1871.52" y="1267.37"/>
        <vehicle id="bike2" eclass="Zero/default" CO2="0.00" CO="0.00" HC="0.00" NOx="0.00" PMx="0.00" fuel="0.00" electricity="0.00" noise="0.00" route="!bike2!var#1" type="bike_bicycle" waiting="0.00" lane="205860388#0_1" pos="7.21" speed="5.51" angle="25.26" x="1942.32" y="244.59"/>
        <vehicle id="bus0" eclass="HBEFA3/Bus" CO2="13651.64" CO="27.84" HC="5.93" NOx="116.43" PMx="2.89" fuel="5.82" electricity="0.00" noise="73.54" route="!bus0!var#1" type="bus_bus" waiting="0.00" lane="169923246#1_1" pos="23.61" speed="4.07" angle="224.35" x="1593.50" y="710.28"/>
        <vehicle id="moto0" eclass="HBEFA3/LDV_G_EU6" CO2="10574.69" CO="366.38" HC="1.70" NOx="2.20" PMx="0.61" fuel="4.55" electricity="0.00" noise="72.17" route="!moto0!var#1" type="moto_motorcycle" waiting="0.00" lane="205860388#3_1" pos="31.11" speed="13.54" angle="24.85" x="2061.79" y="518.30"/>
        <vehicle id="moto1" eclass="HBEFA3/LDV_G_EU6" CO2="3437.55" CO="73.07" HC="0.36" NOx="0.80" PMx="0.12" fuel="1.48" electricity="0.00" noise="63.68" route="!moto1!var#1" type="moto_motorcycle" waiting="0.00" lane="169923329#1_1" pos="27.43" speed="10.65" angle="322.41" x="2135.78" y="1060.14"/>
        <vehicle id="truck0" eclass="HBEFA3/HDV" CO2="30771.40" CO="40.37" HC="0.00" NOx="255.25" PMx="4.76" fuel="13.05" electricity="0.00" noise="77.47" route="!truck0!var#1" type="truck_truck" waiting="0.00" lane="169923246#1_1" pos="68.19" speed="10.63" angle="246.28" x="1557.24" y="684.10"/>
        <vehicle id="truck2" eclass="HBEFA3/HDV" CO2="16439.58" CO="25.02" HC="0.00" NOx="151.99" PMx="3.22" fuel="6.97" electricity="0.00" noise="75.26" route="!truck2!var#1" type="truck_truck" waiting="0.00" lane="-169923323_1" pos="13.49" speed="3.15" angle="43.21" x="1714.76" y="797.65"/>
        <vehicle id="veh0" eclass="HBEFA3/PC_G_EU4" CO2="0.00" CO="0.00" HC="0.00" NOx="0.00" PMx="0.00" fuel="0.00" electricity="0.00" noise="64.25" route="!veh0!var#1" type="veh_passenger" waiting="0.00" lane="169923249#1_1" pos="120.00" speed="13.70" angle="208.72" x="2367.73" y="1327.53"/>
        <vehicle id="veh1" eclass="HBEFA3/PC_G_EU4" CO2="5712.68" CO="76.93" HC="0.49" NOx="2.34" PMx="0.10" fuel="2.46" electricity="0.00" noise="66.73" route="!veh1!var#1" type="veh_passenger" waiting="0.00" lane=":1674805798_5_0" pos="0.89" speed="11.93" angle="311.06" x="1890.46" y="494.23"/>
        <vehicle id="veh2" eclass="HBEFA3/PC_G_EU4" CO2="0.00" CO="0.00" HC="0.00" NOx="0.00" PMx="0.00" fuel="0.00" electricity="0.00" noise="64.03" route="!veh2!var#1" type="veh_passenger" waiting="0.00" lane="205860388#0_1" pos="78.00" speed="14.38" angle="22.73" x="1971.99" y="308.84"/>
        <vehicle id="veh3" eclass="HBEFA3/PC_G_EU4" CO2="5571.37" CO="125.95" HC="0.71" NOx="2.41" PMx="0.11" fuel="2.39" electricity="0.00" noise="67.47" route="!veh3!var#1" type="veh_passenger" waiting="0.00" lane="380698877#3_1" pos="7.40" speed="6.69" angle="297.49" x="948.85" y="586.09"/>
        <vehicle id="veh4" eclass="HBEFA3/PC_G_EU4" CO2="3329.71" CO="147.54" HC="0.75" NOx="1.49" PMx="0.07" fuel="1.43" electricity="0.00" noise="64.93" route="!veh4!var#1" type="veh_passenger" waiting="0.00" lane="-169923328#0_1" pos="6.98" speed="1.88" angle="347.66" x="1341.20" y="1102.54"/>
    </timestep>
    <timestep time="11.00">
        <vehicle id="bike0" eclass="Zero/default" CO2="0.00" CO="0.00" HC="0.00" NOx="0.00" PMx="0.00" fuel="0.00" electricity="0.00" noise="0.00" route="!bike0!var#1" type="bike_bicycle" waiting="0.00" lane="169923248#1_1" pos="46.30" speed="5.26" angle="65.50" x="1772.95" y="866.35"/>
        <vehicle id="bike1" eclass="Zero/default" CO2="0.00" CO="0.00" HC="0.00" NOx="0.00" PMx="0.00" fuel="0.00" electricity="0.00" noise="0.00" route="!bike1!var#1" type="bike_bicycle" waiting="0.00" lane="-225052896#3_1" pos="32.46" speed="5.16" angle="141.15" x="1874.76" y="1263.35"/>
        <vehicle id="bike2" eclass="Zero/default" CO2="0.00" CO="0.00" HC="0.00" NOx="0.00" PMx="0.00" fuel="0.00" electricity="0.00" noise="0.00" route="!bike2!var#1" type="bike_bicycle" waiting="0.00" lane="205860388#0_1" pos="12.57" speed="5.37" angle="25.26" x="1944.61" y="249.44"/>
        <vehicle id="bus0" eclass="HBEFA3/Bus" CO2="19482.09" CO="34.00" HC="6.68" NOx="156.85" PMx="3.57" fuel="8.31" electricity="0.00" noise="76.11" route="!bus0!var#1" type="bus_bus" waiting="0.00" lane="169923246#1_1" pos="28.86" speed="5.25" angle="224.35" x="1589.79" y="706.48"/>
        <vehicle id="moto0" eclass="HBEFA3/LDV_G_EU6" CO2="0.00" CO="0.00" HC="0.00" NOx="0.00" PMx="0.00" fuel="0.00" electricity="0.00" noise="61.43" route="!moto0!var#1" type="moto_motorcycle" waiting="0.00" lane="205860388#3_1" pos="43.55" speed="12.44" angle="13.88" x="2066.55" y="529.55"/>
        <vehicle id="moto1" eclass="HBEFA3/LDV_G_EU6" CO2="3678.05" CO="78.03" HC="0.39" NOx="0.85" PMx="0.13" fuel="1.58" electricity="0.00" noise="64.15" route="!moto1!var#1" type="moto_motorcycle" waiting="0.00" lane="169923329#1_1" pos="38.60" speed="11.16" angle="322.41" x="2128.96" y="1069.00"/>
        <vehicle id="truck0" eclass="HBEFA3/HDV" CO2="31262.50" CO="40.85" HC="0.00" NOx="258.14" PMx="4.80" fuel="13.25" electricity="0.00" noise="77.67" route="!truck0!var#1" type="truck_truck" waiting="0.00" lane="169923246#1_1" pos="79.64" speed="11.45" angle="246.28" x="1546.64" y="679.44"/>
        <vehicle id="truck2" eclass="HBEFA3/HDV" CO2="18227.82" CO="26.93" HC="0.00" NOx="164.73" PMx="3.41" fuel="7.73" electricity="0.00" noise="74.92" route="!truck2!var#1" type="truck_truck" waiting="0.00" lane="-169923323_1" pos="17.71" speed="4.21" angle="41.61" x="1717.51" y="800.84"/>
        <vehicle id="truck3" eclass="HBEFA3/HDV" CO2="7380.56" CO="15.20" HC="0.00" NOx="84.89" PMx="2.21" fuel="3.13" electricity="0.00" noise="67.11" route="!truck3!var#1" type="truck_truck" waiting="0.00" lane="-152907293#0_1" pos="7.20" speed="0.00" angle="301.16" x="704.53" y="987.90"/>