<?xml version="1.0" encoding="UTF-8"?>

<!-- generated on 2021-06-20 15:40:16 by Eclipse SUMO sumo Version 1.9.2
<configuration xmlns:xsi="http://www.w3.org/2001/XMLSchema-instance" xsi:noNamespaceSchemaLocation="http://sumo.dlr.de/xsd/sumoConfiguration.xsd">

    <input>
        <net-file value="/home/diego/PycharmProjects/hadoop-simulation-urban-modbility/2021-06-20-15-40-03/osm.net.xml"/>
        <route-files value="/home/diego/PycharmProjects/hadoop-simulation-urban-modbility/2021-06-20-15-40-03/trips.trips.xml"/>
        <additional-files value="/home/diego/PycharmProjects/hadoop-simulation-urban-modbility/2021-06-20-15-40-03/osm_stops.add.xml"/>
    </input>

    <output>
        <vehroute-output value="/home/diego/PycharmProjects/hadoop-simulation-urban-modbility/2021-06-20-15-40-03/vehroutes.xml"/>
        <stop-output value="/home/diego/PycharmProjects/hadoop-simulation-urban-modbility/2021-06-20-15-40-03/stopinfos.xml"/>
    </output>

    <time>
        <begin value="0"/>
    </time>

    <processing>
        <ignore-route-errors value="true"/>
    </processing>

    <routing>
        <device.rerouting.adaptation-interval value="0"/>
    </routing>

    <report>
        <aggregate-warnings value="5"/>
        <error-log value="/home/diego/PycharmProjects/hadoop-simulation-urban-modbility/2021-06-20-15-40-03/trips.trips.xml.errorlog"/>
        <no-step-log value="true"/>
    </report>

</configuration>
-->

<routes xmlns:xsi="http://www.w3.org/2001/XMLSchema-instance" xsi:noNamespaceSchemaLocation="http://sumo.dlr.de/xsd/routes_file.xsd">
</routes>
