<?xml version="1.0" encoding="UTF-8"?>

<!-- generated on 2021-05-26 08:21:44 by Eclipse SUMO sumo Version 1.9.2
<configuration xmlns:xsi="http://www.w3.org/2001/XMLSchema-instance" xsi:noNamespaceSchemaLocation="http://sumo.dlr.de/xsd/sumoConfiguration.xsd">

    <input>
        <net-file value="/home/diego/Sumo/2021-05-26-08-21-39/osm.net.xml"/>
        <route-files value="/home/diego/Sumo/2021-05-26-08-21-39/trips.trips.xml"/>
        <additional-files value="/home/diego/Sumo/2021-05-26-08-21-39/osm_stops.add.xml"/>
    </input>

    <output>
        <vehroute-output value="/home/diego/Sumo/2021-05-26-08-21-39/vehroutes.xml"/>
        <stop-output value="/home/diego/Sumo/2021-05-26-08-21-39/stopinfos.xml"/>
    </output>

    <time>
        <begin value="0"/>
    </time>

    <processing>
        <ignore-route-errors value="true"/>
    </processing>

    <routing>
        <device.rerouting.adaptation-interval value="0"/>
    </routing>

    <report>
        <aggregate-warnings value="5"/>
        <error-log value="/home/diego/Sumo/2021-05-26-08-21-39/trips.trips.xml.errorlog"/>
        <no-step-log value="true"/>
    </report>

</configuration>
-->

<routes xmlns:xsi="http://www.w3.org/2001/XMLSchema-instance" xsi:noNamespaceSchemaLocation="http://sumo.dlr.de/xsd/routes_file.xsd">
</routes>
